<?xml version="1.0"?>
<VTKFile type="UnstructuredGrid">
  <UnstructuredGrid>
  <Piece NumberOfPoints="392"  NumberOfCells="392">
    <Points>
      <DataArray type="Float64" NumberOfComponents="3" format="ascii">
0.984808 -0.173648 0
0.253094 -0.104817 0
0 0 0
0.27368 0.011932 0
0.9795099243980885 -0.1734678068201094 0
0.973839472809231 -0.1732700882270885 0
0.9678179586627261 -0.1730526496103194 0
0.9614841613951524 -0.1728181248294359 0
0.9548551236448696 -0.1725649289682091 0
0.9479608767883769 -0.1722948350715351 0
0.9408184444105271 -0.1720062707702649 0
0.9334291919571815 -0.1716992801743605 0
0.9258383409247473 -0.1713749509746389 0
0.9180313482123079 -0.1710317730240805 0
0.9100283993241557 -0.1706711407997488 0
0.9018473036386222 -0.1702911142727573 0
0.8934924832477036 -0.1698936273962428 0
0.884975197086682 -0.1694797373129903 0
0.8763054956936774 -0.1690438013288868 0
0.8674933436780993 -0.1685909256750486 0
0.8585386588095506 -0.1681248416675463 0
0.8494181065240339 -0.167629487703866 0
0.8401849073988733 -0.1671230641976314 0
0.8308478799861456 -0.1665944386872364 0
0.8213479421105765 -0.1660479894552041 0
0.8117188766563206 -0.1654818434977651 0
0.8019818939309689 -0.1648936240774707 0
0.7921003107664187 -0.1642887499762386 0
0.7820566722076487 -0.1636531264912742 0
0.7718966849703127 -0.1630020841192154 0
0.7616184376367817 -0.1623279677882151 0
0.7511360244876603 -0.1616238064961714 0
0.7405283502657247 -0.1609010885004218 0
0.7297937542975897 -0.160151580140262 0
0.7188909762904113 -0.1593738684626404 0
0.7078098446570064 -0.1585702557571407 0
0.696592715159441 -0.157737007186892 0
0.6852368843244563 -0.1568745036193447 0
0.6736718475867235 -0.1559808330513119 0
0.6619442949833757 -0.1550581928691207 0
0.6500685621225176 -0.1540971802551772 0
0.638041150853879 -0.1531048520772149 0
0.6257750572712215 -0.152072080891389 0
0.6133497154891733 -0.1510036836748855 0
0.6007626410546246 -0.1498948146751735 0
0.5880076122192329 -0.148744403732954 0
0.5750030903411373 -0.1475440460600052 0
0.5618257056858756 -0.1462990690094781 0
0.5484724529775398 -0.1450077992765345 0
0.5349400792304344 -0.143666975481911 0
0.5211487556083162 -0.142264043923389 0
0.5071625934256488 -0.1408034607902992 0
0.4929866720799357 -0.1392794613234852 0
0.4786177453171758 -0.1376913803185297 0
0.4640009895470217 -0.1360289872164644 0
0.449149982523525 -0.1342881168768593 0
0.4340950421751569 -0.1324692785056945 0
0.4188339042680183 -0.1305644269644955 0
0.4033508202817149 -0.1285668760969999 0
0.3875805023436244 -0.1264615012860948 0
0.3715942545567509 -0.1242505215882008 0
0.3553911953287529 -0.1219181980661072 0
0.3389689815368054 -0.1194616147688924 0
0.3222721285459191 -0.1168604247681836 0
0.3053135377298715 -0.1141056689605186 0
0.2881307617040195 -0.1111890283737275 0
0.270723813924402 -0.1080981981409851 0
0.9821546338136004 -0.1735586104119992 0
0.9766755822501163 -0.1733696071573405 0
0.9708277369132002 -0.1731626328333749 0
0.9646491499875467 -0.1729357752280563 0
0.9581622374171772 -0.1726917024361515 0
0.9514186120577339 -0.172431477768242 0
0.9443971156823181 -0.1721522846272927 0
0.937130647864826 -0.1718546070511426 0
0.9296401433845216 -0.1715389616525432 0
0.9219389435049453 -0.1712041776333371 0
0.914029873768234 -0.1708514569119148 0
0.9059390157500085 -0.1704818376376992 0
0.8976626513800073 -0.1700949841658678 0
0.8892202991451205 -0.1696873447805669 0
0.8806403463901797 -0.1692617693209386 0
0.8718945882490418 -0.1688200068473887 0
0.8630160012438262 -0.1683578836712975 0
0.8539790335222772 -0.1678773733670983 0
0.844793974709973 -0.1673781668688596 0
0.8355163936925102 -0.166858751442434 0
0.8260968607804859 -0.1663254547974532 0
0.8165334093834506 -0.1657649164764847 0
0.8068499381428457 -0.1651916080966692 0
0.7970411023486934 -0.1645911870268546 0
0.787078042605587 -0.163971237418835 0
0.7769763631742631 -0.1633312817176703 0
0.7667575613035467 -0.1626650259537152 0
0.7563761786301076 -0.1619789952539948 0
0.7458321962831301 -0.1612643017754198 0
0.7351610522816578 -0.1605263343203419 0
0.7243415978796116 -0.1597669275613611 0
0.7133498421269934 -0.1589742822568251 0
0.7022012799082211 -0.1581536314720162 0
0.6909147242887143 -0.1573088312311347 0
0.679453526970934 -0.1564321044317495 0
0.667808071285047 -0.1555195129602161 0
0.656006284548652 -0.1545777351217351 0
0.6440542328984092 -0.1536056877579173 0
0.6319082412905378 -0.1525940358413653 0
0.6195623805584208 -0.1515393958832866 0
0.6070561782719096 -0.1504492491750305 0
0.5943841449533749 -0.149321625277134 0
0.5815041854872968 -0.1481502656151502 0
0.5684139115596799 -0.1469296128083975 0
0.5551488844544564 -0.1456590336409159 0
0.5417059675473084 -0.1443408549499042 0
0.5280441187936715 -0.1429666925708868 0
0.514155674516977 -0.1415337523568435 0
0.5000742708519936 -0.140042065843138 0
0.4858021335164953 -0.1384876946985058 0
0.4713093972362579 -0.1368638880948705 0
0.4565748748712114 -0.1351633168120617 0
0.4416216861871829 -0.1333837868109127 0
0.4264636741550879 -0.1315224775090601 0
0.4110918440134964 -0.1295708119551983 0
0.3954648699526118 -0.1275184578661588 0
0.3795868150583758 -0.1253585713514567 0
0.3634920628238135 -0.1230876486421808 0
0.3471789156047482 -0.1206976706072946 0
0.3306182707170283 -0.1181742041313142 0
0.3137894721069479 -0.1155041394540088 0
0.2967178317329585 -0.1126727829812581 0
0.2794240018078183 -0.1096622636183668 0
0.2619068118877055 -0.1064680591764693 0
0.2416222028932211 -0.1025746153512115 0
0.2301641381230077 -0.1002635093107831 0
0.218720923619729 -0.0978801392377882 0
0.2078223422523073 -0.09553961824944771 0
0.19695929309787 -0.09310610645733292 0
0.1861158332902362 -0.0905872721033318 0
0.1757728930199905 -0.08810851569769575 0
0.1654819794137254 -0.0855583627647236 0
0.1552221742818845 -0.08288603303890762 0
0.1454161165340886 -0.08024981757828571 0
0.1356853984971908 -0.07755373748359773 0
0.1259968837320459 -0.0747098530819475 0
0.1167360803213024 -0.07190150595355611 0
0.1075629440041896 -0.06901575713686778 0
0.09853641252234401 -0.06602452403262389 0
0.08988664287673032 -0.06301506642458227 0
0.08128139110306637 -0.05988109628929495 0
0.07313545354017556 -0.05676244454496933 0
0.06508192845410671 -0.05350879104137461 0
0.05744559452276273 -0.05023975542780861 0
0.05004391613589464 -0.04686759418938679 0
0.04293919653510948 -0.0434074320659813 0
0.03626343454606625 -0.0399148588983991 0
0.02995171904291752 -0.03633483015877991 0
0.02407068729922145 -0.03265127345607406 0
0.01863736278412495 -0.02890735925062734 0
0.01376452837384147 -0.0250615240151135 0
0.009490000895162543 -0.0211652049638576 0
0.005890834887266151 -0.01720994409982429 0
0.003073712389617596 -0.01324441931566132 0
0.001121680582766274 -0.009364249817466698 0
4.666035529789139e-05 -0.005745627034750725 0
-0.0002265341168193053 -0.002570548149207747 0
0.2473581014466112 -0.1036958076756059 0
0.2358907292524109 -0.1014328356318945 0
0.2244377442227485 -0.09909422326236164 0
0.2132703438273617 -0.09671503940846979 0
0.2023908176750862 -0.09432286235338977 0
0.1915342019776282 -0.09186157577777283 0
0.1809394173380516 -0.08936987139679572 0
0.1706274362168587 -0.08683343923120988 0
0.1603510827429578 -0.0842270154376631 0
0.1503099543787312 -0.08160170510072362 0
0.14055075751564 -0.07890177753094181 0
0.1308380064651653 -0.07613334652169028 0
0.1213566360748451 -0.073344704947154 0
0.1121394696973673 -0.07046578605745089 0
0.1030496782632662 -0.06752014058474566 0
0.09421152950460335 -0.06453493062008231 0
0.08557259629229849 -0.06148037521348809 0
0.07718967663052893 -0.05835616507972113 0
0.06909946681693788 -0.0551677983673645 0
0.06126098807530137 -0.05190779538107971 0
0.05372683413282019 -0.04858565493258729 0
0.04646903643289527 -0.04517834728458769 0
0.03957550546653191 -0.04168798777501203 0
0.03309614841322153 -0.03814594195041231 0
0.02698836933156053 -0.03452157975922868 0
0.02132382237189184 -0.03080907971060464 0
0.01617823911028469 -0.02702657601197123 0
0.01158652213270765 -0.0231556580418558 0
0.007639497735999421 -0.01923832951924785 0
0.004411259174146652 -0.01527068586504209 0
0.002017816265682066 -0.01134831050685205 0
0.0005008126399562084 -0.007579815493739026 0
-0.0001653020902405893 -0.004164995006916367 0
-0.0001633827056103757 -0.001278213420986221 0
0.0006666824463870943 0.002492848712996522 0
0.002009423758201578 0.005382945694938334 0
0.004256681031265475 0.008415929611046525 0
0.007418442727100833 0.01139411812173792 0
0.01142197655534026 0.01415696224730436 0
0.01615677055088864 0.01664279710617607 0
0.02150579443096271 0.01884298648047143 0
0.02740036742341611 0.02078950648828716 0
0.03378650814769516 0.02244942133061284 0
0.04057284501682322 0.02389872632711421 0
0.04772823684110701 0.02510490503418177 0
0.05519590099768143 0.02610382174090856 0
0.06305556926520202 0.02692533529673816 0
0.07116424240386393 0.02756197771501888 0
0.07945813122042453 0.02802192003853509 0
0.08813876984049547 0.02832552997755875 0
0.09686007701040812 0.02847010986722624 0
0.1060182446967582 0.02847136753303945 0
0.1151756581522076 0.02834084308942016 0
0.1246809044598822 0.02806502467849778 0
0.1342878009142811 0.02763917963537355 0
0.1439506227677054 0.02711059010120252 0
0.1540274999865631 0.02646919736948186 0
0.1640934844119364 0.02567451438853133 0
0.1742098303534848 0.0247981127352238 0
0.1847649197484823 0.0238006928156498 0
0.1953073883531415 0.022677142874715 0
0.2058743537084331 0.02146863155741759 0
0.2169253350259318 0.02012669621633626 0
0.2279655896590087 0.01869826971013961 0
0.239007496633444 0.0171706718956626 0
0.2505757464962813 0.01549647569259731 0
0.2621331687479515 0.01374883631897125 0
0.0002835522727355897 0.001256945503451418 0
0.001269405636412816 0.003970280164182966 0
0.003062813315399582 0.006951611666903699 0
0.005777512347870568 0.00997367635825851 0
0.009368416445778158 0.01284064856162762 0
0.01375884827288632 0.01546504999911009 0
0.01880739699500262 0.01779657673714253 0
[...]
    <PointData>
      <DataArray type="Float64" NumberOfComponents="3" Name="Position" format="ascii">
0.984808 -0.173648 0
0.253094 -0.104817 0
0 0 0
0.27368 0.011932 0
0.9795099243980885 -0.1734678068201094 0
0.973839472809231 -0.1732700882270885 0
0.9678179586627261 -0.1730526496103194 0
0.9614841613951524 -0.1728181248294359 0
0.9548551236448696 -0.1725649289682091 0
0.9479608767883769 -0.1722948350715351 0
0.9408184444105271 -0.1720062707702649 0
0.9334291919571815 -0.1716992801743605 0
0.9258383409247473 -0.1713749509746389 0
0.9180313482123079 -0.1710317730240805 0
0.9100283993241557 -0.1706711407997488 0
0.9018473036386222 -0.1702911142727573 0
0.8934924832477036 -0.1698936273962428 0
0.884975197086682 -0.1694797373129903 0
0.8763054956936774 -0.1690438013288868 0
0.8674933436780993 -0.1685909256750486 0
0.8585386588095506 -0.1681248416675463 0
0.8494181065240339 -0.167629487703866 0
0.8401849073988733 -0.1671230641976314 0
0.8308478799861456 -0.1665944386872364 0
0.8213479421105765 -0.1660479894552041 0
0.8117188766563206 -0.1654818434977651 0
0.8019818939309689 -0.1648936240774707 0
0.7921003107664187 -0.1642887499762386 0
0.7820566722076487 -0.1636531264912742 0
0.7718966849703127 -0.1630020841192154 0
0.7616184376367817 -0.1623279677882151 0
0.7511360244876603 -0.1616238064961714 0
0.7405283502657247 -0.1609010885004218 0
0.7297937542975897 -0.160151580140262 0
0.7188909762904113 -0.1593738684626404 0
0.7078098446570064 -0.1585702557571407 0
0.696592715159441 -0.157737007186892 0
0.6852368843244563 -0.1568745036193447 0
0.6736718475867235 -0.1559808330513119 0
0.6619442949833757 -0.1550581928691207 0
0.6500685621225176 -0.1540971802551772 0
0.638041150853879 -0.1531048520772149 0
0.6257750572712215 -0.152072080891389 0
0.6133497154891733 -0.1510036836748855 0
0.6007626410546246 -0.1498948146751735 0
0.5880076122192329 -0.148744403732954 0
0.5750030903411373 -0.1475440460600052 0
0.5618257056858756 -0.1462990690094781 0
0.5484724529775398 -0.1450077992765345 0
0.5349400792304344 -0.143666975481911 0
0.5211487556083162 -0.142264043923389 0
0.5071625934256488 -0.1408034607902992 0
0.4929866720799357 -0.1392794613234852 0
0.4786177453171758 -0.1376913803185297 0
0.4640009895470217 -0.1360289872164644 0
0.449149982523525 -0.1342881168768593 0
0.4340950421751569 -0.1324692785056945 0
0.4188339042680183 -0.1305644269644955 0
0.4033508202817149 -0.1285668760969999 0
0.3875805023436244 -0.1264615012860948 0
0.3715942545567509 -0.1242505215882008 0
0.3553911953287529 -0.1219181980661072 0
0.3389689815368054 -0.1194616147688924 0
0.3222721285459191 -0.1168604247681836 0
0.3053135377298715 -0.1141056689605186 0
0.2881307617040195 -0.1111890283737275 0
0.270723813924402 -0.1080981981409851 0
0.9821546338136004 -0.1735586104119992 0
0.9766755822501163 -0.1733696071573405 0
0.9708277369132002 -0.1731626328333749 0
0.9646491499875467 -0.1729357752280563 0
0.9581622374171772 -0.1726917024361515 0
0.9514186120577339 -0.172431477768242 0
0.9443971156823181 -0.1721522846272927 0
0.937130647864826 -0.1718546070511426 0
0.9296401433845216 -0.1715389616525432 0
0.9219389435049453 -0.1712041776333371 0
0.914029873768234 -0.1708514569119148 0
0.9059390157500085 -0.1704818376376992 0
0.8976626513800073 -0.1700949841658678 0
0.8892202991451205 -0.1696873447805669 0
0.8806403463901797 -0.1692617693209386 0
0.8718945882490418 -0.1688200068473887 0
0.8630160012438262 -0.1683578836712975 0
0.8539790335222772 -0.1678773733670983 0
0.844793974709973 -0.1673781668688596 0
0.8355163936925102 -0.166858751442434 0
0.8260968607804859 -0.1663254547974532 0
0.8165334093834506 -0.1657649164764847 0
0.8068499381428457 -0.1651916080966692 0
0.7970411023486934 -0.1645911870268546 0
0.787078042605587 -0.163971237418835 0
0.7769763631742631 -0.1633312817176703 0
0.7667575613035467 -0.1626650259537152 0
0.7563761786301076 -0.1619789952539948 0
0.7458321962831301 -0.1612643017754198 0
0.7351610522816578 -0.1605263343203419 0
0.7243415978796116 -0.1597669275613611 0
0.7133498421269934 -0.1589742822568251 0
0.7022012799082211 -0.1581536314720162 0
0.6909147242887143 -0.1573088312311347 0
0.679453526970934 -0.1564321044317495 0
0.667808071285047 -0.1555195129602161 0
0.656006284548652 -0.1545777351217351 0
0.6440542328984092 -0.1536056877579173 0
0.6319082412905378 -0.1525940358413653 0
0.6195623805584208 -0.1515393958832866 0
0.6070561782719096 -0.1504492491750305 0
0.5943841449533749 -0.149321625277134 0
0.5815041854872968 -0.1481502656151502 0
0.5684139115596799 -0.1469296128083975 0
0.5551488844544564 -0.1456590336409159 0
0.5417059675473084 -0.1443408549499042 0
0.5280441187936715 -0.1429666925708868 0
0.514155674516977 -0.1415337523568435 0
0.5000742708519936 -0.140042065843138 0
0.4858021335164953 -0.1384876946985058 0
0.4713093972362579 -0.1368638880948705 0
0.4565748748712114 -0.1351633168120617 0
0.4416216861871829 -0.1333837868109127 0
0.4264636741550879 -0.1315224775090601 0
0.4110918440134964 -0.1295708119551983 0
0.3954648699526118 -0.1275184578661588 0
0.3795868150583758 -0.1253585713514567 0
0.3634920628238135 -0.1230876486421808 0
0.3471789156047482 -0.1206976706072946 0
0.3306182707170283 -0.1181742041313142 0
0.3137894721069479 -0.1155041394540088 0
0.2967178317329585 -0.1126727829812581 0
0.2794240018078183 -0.1096622636183668 0
0.2619068118877055 -0.1064680591764693 0
0.2416222028932211 -0.1025746153512115 0
0.2301641381230077 -0.1002635093107831 0
0.218720923619729 -0.0978801392377882 0
0.2078223422523073 -0.09553961824944771 0
0.19695929309787 -0.09310610645733292 0
0.1861158332902362 -0.0905872721033318 0
0.1757728930199905 -0.08810851569769575 0
0.1654819794137254 -0.0855583627647236 0
0.1552221742818845 -0.08288603303890762 0
0.1454161165340886 -0.08024981757828571 0
0.1356853984971908 -0.07755373748359773 0
0.1259968837320459 -0.0747098530819475 0
0.1167360803213024 -0.07190150595355611 0
0.1075629440041896 -0.06901575713686778 0
0.09853641252234401 -0.06602452403262389 0
0.08988664287673032 -0.06301506642458227 0
0.08128139110306637 -0.05988109628929495 0
0.07313545354017556 -0.05676244454496933 0
0.06508192845410671 -0.05350879104137461 0
0.05744559452276273 -0.05023975542780861 0
0.05004391613589464 -0.04686759418938679 0
0.04293919653510948 -0.0434074320659813 0
0.03626343454606625 -0.0399148588983991 0
0.02995171904291752 -0.03633483015877991 0
0.02407068729922145 -0.03265127345607406 0
0.01863736278412495 -0.02890735925062734 0
0.01376452837384147 -0.0250615240151135 0
0.009490000895162543 -0.0211652049638576 0
0.005890834887266151 -0.01720994409982429 0
0.003073712389617596 -0.01324441931566132 0
0.001121680582766274 -0.009364249817466698 0
4.666035529789139e-05 -0.005745627034750725 0
-0.0002265341168193053 -0.002570548149207747 0
0.2473581014466112 -0.1036958076756059 0
0.2358907292524109 -0.1014328356318945 0
0.2244377442227485 -0.09909422326236164 0
0.2132703438273617 -0.09671503940846979 0
0.2023908176750862 -0.09432286235338977 0
0.1915342019776282 -0.09186157577777283 0
0.1809394173380516 -0.08936987139679572 0
0.1706274362168587 -0.08683343923120988 0
0.1603510827429578 -0.0842270154376631 0
0.1503099543787312 -0.08160170510072362 0
0.14055075751564 -0.07890177753094181 0
0.1308380064651653 -0.07613334652169028 0
0.1213566360748451 -0.073344704947154 0
0.1121394696973673 -0.07046578605745089 0
0.1030496782632662 -0.06752014058474566 0
0.09421152950460335 -0.06453493062008231 0
0.08557259629229849 -0.06148037521348809 0
0.07718967663052893 -0.05835616507972113 0
0.06909946681693788 -0.0551677983673645 0
0.06126098807530137 -0.05190779538107971 0
0.05372683413282019 -0.04858565493258729 0
0.04646903643289527 -0.04517834728458769 0
0.03957550546653191 -0.04168798777501203 0
0.03309614841322153 -0.03814594195041231 0
0.02698836933156053 -0.03452157975922868 0
0.02132382237189184 -0.03080907971060464 0
0.01617823911028469 -0.02702657601197123 0
0.01158652213270765 -0.0231556580418558 0
0.007639497735999421 -0.01923832951924785 0
0.004411259174146652 -0.01527068586504209 0
0.002017816265682066 -0.01134831050685205 0
0.0005008126399562084 -0.007579815493739026 0
-0.0001653020902405893 -0.004164995006916367 0
-0.0001633827056103757 -0.001278213420986221 0
0.0006666824463870943 0.002492848712996522 0
0.002009423758201578 0.005382945694938334 0
0.004256681031265475 0.008415929611046525 0
0.007418442727100833 0.01139411812173792 0
0.01142197655534026 0.01415696224730436 0
0.01615677055088864 0.01664279710617607 0
0.02150579443096271 0.01884298648047143 0
0.02740036742341611 0.02078950648828716 0
0.03378650814769516 0.02244942133061284 0
0.04057284501682322 0.02389872632711421 0
0.04772823684110701 0.02510490503418177 0
0.05519590099768143 0.02610382174090856 0
0.06305556926520202 0.02692533529673816 0
0.07116424240386393 0.02756197771501888 0
0.07945813122042453 0.02802192003853509 0
0.08813876984049547 0.02832552997755875 0
0.09686007701040812 0.02847010986722624 0
0.1060182446967582 0.02847136753303945 0
0.1151756581522076 0.02834084308942016 0
0.1246809044598822 0.02806502467849778 0
0.1342878009142811 0.02763917963537355 0
0.1439506227677054 0.02711059010120252 0
0.1540274999865631 0.02646919736948186 0
0.1640934844119364 0.02567451438853133 0
0.1742098303534848 0.0247981127352238 0
0.1847649197484823 0.0238006928156498 0
0.1953073883531415 0.022677142874715 0
0.2058743537084331 0.02146863155741759 0
0.2169253350259318 0.02012669621633626 0
0.2279655896590087 0.01869826971013961 0
0.239007496633444 0.0171706718956626 0
0.2505757464962813 0.01549647569259731 0
0.2621331687479515 0.01374883631897125 0
0.0002835522727355897 0.001256945503451418 0
0.001269405636412816 0.003970280164182966 0
0.003062813315399582 0.006951611666903699 0
0.005777512347870568 0.00997367635825851 0
0.009368416445778158 0.01284064856162762 0
0.01375884827288632 0.01546504999911009 0
0.01880739699500262 0.01779657673714253 0
0.02444617455271983 0.019863733666431 0
0.03057524526597586 0.02165762510186713 0
0.03716791502330039 0.02320899923255784 0
0.04414700620710111 0.02452559149449801 0
0.05144702154473432 0.02563828394969453 0
0.05911848113870919 0.0265610028398472 0
0.06710399649854014 0.02727980842138248 0
0.07532009958109899 0.02782427552909142 0
0.08380079520701574 0.02820695313424836 0
0.09249355753180692 0.02843693673784756 0
0.1014394495141431 0.02850490007422841 0
0.1106021155147233 0.02842025845693155 0
0.119928281306045 0.02820293388395897 0
0.1294773782003985 0.02786230827230823 0
0.1391232848070017 0.02741488855035339 0
0.1489866468610765 0.02679242349181497 0
0.1590604921992495 0.02607185587900662 0
0.1691545590396578 0.02527106189744104 0
0.1794880904651619 0.02430430171246931 0
0.1900361540508134 0.02323891784518223 0
0.2005937269463835 0.02209524200869418 0
0.2114017733800191 0.020812736132333 0
0.2224454623424715 0.01941248296323778 0
0.2334870958556316 0.01793973818798589 0
0.2447948216966523 0.016356505762909 0
0.2563568864871426 0.01463641360821572 0
0.2679065843739744 0.01284041815948584 0
0.2913690494709344 0.008986836911521759 0
0.3087832111303397 0.005936921509030536 0
0.325927275473039 0.002800751301901584 0
0.342805380199824 -0.0004105035926431841 0
0.3593850154429828 -0.003676504154650631 0
0.3756569631869801 -0.006985276539942067 0
0.3916805305645187 -0.01033548124247161 0
0.4074589848730671 -0.01372499886057505 0
0.4229983686999342 -0.01714014919177373 0
0.4382307555633357 -0.02055928256711873 0
0.4532230599973562 -0.02398875731099512 0
0.4679921840837479 -0.0274285514437645 0
0.4825429343097104 -0.03087224651595534 0
0.4968468492651841 -0.03430897204080595 0
0.5108923770474391 -0.03773114283822434 0
0.5247344745359991 -0.04114811863399977 0
0.5383768267198689 -0.04455870667996723 0
0.5518161077594175 -0.04795790031328161 0
0.5649911161413416 -0.05132569525484709 0
0.5779807414358541 -0.05467930289354506 0
0.590789102169021 -0.05801685404559717 0
0.6034198538279357 -0.06133690334130162 0
0.6157993108369262 -0.06461763863431123 0
0.6280066414921002 -0.06788034571786479 0
0.6400479248909096 -0.07112664725313306 0
0.6519274985137914 -0.07435145592303537 0
0.6635689963268165 -0.07753249111984177 0
0.6750571334595142 -0.08069145760503724 0
0.6863930866058908 -0.08383513413903208 0
0.697566425589935 -0.0869504510125978 0
0.708532440812611 -0.09002376011331634 0
0.7193578944196798 -0.09307789774932031 0
0.7300455953971213 -0.09611271551790493 0
0.7405568975694903 -0.09911070062316607 0
0.7509005221492929 -0.1020776147534998 0
0.761115648553411 -0.1050265569575372 0
0.7712066866229452 -0.1079502124839988 0
0.7810955493032 -0.1108324374372172 0
0.7908655187098336 -0.1136954889130529 0
0.8005209334938307 -0.1165330547509475 0
0.8100134319918098 -0.119344463147593 0
0.8193643637948833 -0.1221220235679548 0
0.8286063639711576 -0.1248833354192454 0
0.837720287496743 -0.1276189910646157 0
0.8466750314631111 -0.1303156778876154 0
0.8555245353227229 -0.132997969236594 0
0.8642643823271974 -0.1356521860596146 0
0.8728386511316251 -0.1382762132511536 0
0.8812743397241904 -0.1408643009816692 0
0.8895701854347938 -0.1434202370596722 0
0.8977152062389482 -0.1459449814571712 0
0.9057020941906891 -0.1484290712323622 0
0.9135199778069668 -0.1508694697647361 0
0.92116375148736 -0.153267388989446 0
0.9286170883609827 -0.155615671292498 0
0.9358610755893862 -0.1579071292188345 0
0.9429098346139355 -0.1601455107925708 0
0.9497201785294556 -0.1623173407908016 0
0.9562910991770328 -0.1644212393410563 0
0.9626070203742988 -0.1664504229534854 0
0.9686388376836792 -0.168397009218015 0
0.9743713749690354 -0.1702526816336411 0
0.9797676062242959 -0.1720059036126677 0
0.2825261655008646 0.0104701741355184 0
0.3000794177737842 0.007480497169838122 0
0.3173598263806354 0.004393909241552009 0
0.3343704063871056 0.001216212707493191 0
0.3510975481786193 -0.00203038654023539 0
0.3675225612866757 -0.005323094150409746 0
0.3836692203714713 -0.008657083646762376 0
0.399570097040902 -0.01202763649108077 0
0.4152294292414809 -0.01542821854225333 0
0.4306158372574518 -0.01884477202443963 0
0.4457280842510281 -0.02226847590153184 0
0.460608590347814 -0.02570352403187535 0
0.4752685997346061 -0.02914578553736703 0
0.4896962001500391 -0.03258711361604904 0
0.503870328211848 -0.03601786039803138 0
0.5178132911641903 -0.03943895545124453 0
0.5315556506279402 -0.04285341265698505 0
0.5450965976871212 -0.04625705532652134 0
0.5584044844836201 -0.0496385683486136 0
0.5714876952971377 -0.05299699593829597 0
0.5843872577704012 -0.05634023123637464 0
0.5971053898759853 -0.05967106982775388 0
0.6096093428372693 -0.06297500768908891 0
0.621902976164513 -0.06624899217608796 0
0.6340278056315622 -0.06950201963814429 0
0.6459896910268921 -0.07273403610004651 0
0.657749284395609 -0.07593727222159735 0
0.6693129428880605 -0.07911187946957972 0
0.6807251100327025 -0.08226329587203465 0
0.691980459906736 -0.08538833236602476 0
0.7030504491023162 -0.08848406147008803 0
0.713945167616148 -0.09155082893131906 0
0.724701949670351 -0.09459310128393036 0
0.7353019534175164 -0.09760750706567585 0
0.7457287098593939 -0.1005941576883336 0
0.7560087348989654 -0.1035503194869028 0
0.7661612479744043 -0.1064850705395316 0
0.7761511179630727 -0.109391324960608 0
0.7859814656283659 -0.1122604978327496 0
0.7956929112719662 -0.1151138324798065 0
0.8052671827428185 -0.1179387589492697 0
0.8146897940649442 -0.1207294687497496 0
0.8239853638830223 -0.1235026794936006 0
0.8331637934269809 -0.1262468203400084 0
0.8421976594799251 -0.128967334476115 0
0.8510933637601528 -0.1316524347564382 0
0.8598951457706835 -0.1343251142080808 0
0.868551516729414 -0.1369641996553849 0
0.8770529285259631 -0.1395659300453975 0
0.8854222625794969 -0.1421422690206722 0
0.8936302212925632 -0.1446773378917453 0
0.9017026536687499 -0.1471823573944645 0
0.9096123593193662 -0.1496489836722179 0
0.9173418646471659 -0.1520684293770918 0
0.924894555668058 -0.1544420885932268 0
0.9322456414882858 -0.1567619839434568 0
0.9393924887729624 -0.1590269736536279 0
0.9463226801614559 -0.1612321857301119 0
0.953016057674572 -0.1633715538935986 0
0.9594421545909771 -0.1654330854042426 0
0.9656213049584456 -0.167422606889328 0
0.9715044759880536 -0.1693236630934739 0
0.9770705378571275 -0.1711289872817239 0
0.9822839387410449 -0.1728249365459929 0
      </DataArray> 
    </PointData>
    <CellData>
    </CellData>
  </Piece>
  </UnstructuredGrid>
</VTKFile>
