<?xml version="1.0"?>
<VTKFile type="UnstructuredGrid">
  <UnstructuredGrid>
  <Piece NumberOfPoints="392"  NumberOfCells="392">
    <Points>
      <DataArray type="Float64" NumberOfComponents="3" format="ascii">
0.9946055399383394 -0.1450971183832148 0
0.2611716701151059 -0.09800313837391721 0
0.005079604011758591 -0.0007404528058188249 0
0.2782851820621579 0.01930517380317497 0
0.9893044505909919 -0.1450741750380556 0
0.9836306292452844 -0.1450447607456705 0
0.977605314845626 -0.145006049585922 0
0.9712673478959684 -0.1449595238444396 0
0.9646337165163864 -0.1449030937226605 0
0.9577344914643774 -0.1448376405866849 0
0.950586642187111 -0.144761087744741 0
0.9431915348380366 -0.1446734387806227 0
0.935594403277645 -0.1445744393841506 0
0.927780666006336 -0.1444630115025917 0
0.9197705410123317 -0.1443399501844178 0
0.911581772283595 -0.1442027879289084 0
0.9032188373377262 -0.1440533266540686 0
0.8946930215154825 -0.143892289034478 0
0.8860142035376981 -0.1437137367043653 0
0.8771924951075031 -0.1435224780414929 0
0.8682279247223771 -0.143322245159116 0
0.8590966916114575 -0.1430976757573217 0
0.8498525328545781 -0.1428653834196399 0
0.8405039328715719 -0.1426139789765553 0
0.8309919653747607 -0.1423495914910896 0
0.8213503428160046 -0.1420693465946977 0
0.8116001956604912 -0.1417702393797352 0
0.8017050176364806 -0.1414587744709547 0
0.7916469433435875 -0.1411213811804325 0
0.781472114169204 -0.1407720273409463 0
0.771178392444748 -0.1404031179531302 0
0.7606797034608076 -0.1400102335266416 0
0.7500552580384808 -0.1396025165070106 0
0.7393031519788925 -0.1391717861221873 0
0.728382101232612 -0.1387178540518383 0
0.717282006987954 -0.1382433233183772 0
0.7060450955692174 -0.1377432042201241 0
0.6946686759916536 -0.1372179576570257 0
0.6830822179997335 -0.1366677640267943 0
0.6713324562681093 -0.1360934346612369 0
0.6594334411553791 -0.1354851456068875 0
0.6473818853970108 -0.1348500544002929 0
0.6350905526079722 -0.13418161863682 0
0.6226389848407772 -0.1334822967138868 0
0.6100245549836762 -0.1327473187144391 0
0.5972410122797405 -0.131975799522 0
0.5842066046409445 -0.1311617569392226 0
0.5709980866453466 -0.1303082426926947 0
0.5576124047001494 -0.1294136733673107 0
0.5440462105006296 -0.1284748855209401 0
0.5302193379318862 -0.1274816991458721 0
0.5161960022871613 -0.1264366665703359 0
0.501981109713442 -0.1253338748890497 0
0.4875713956517897 -0.1241727554924 0
0.4729117571452904 -0.1229447086981405 0
0.4580156424108091 -0.1216451684069469 0
0.4429133711391728 -0.1202737442015119 0
0.4276024414292546 -0.1188224616540209 0
0.4120669133431481 -0.1172851047400429 0
0.3962410790620965 -0.1156484923022487 0
0.3801962771363262 -0.1139127271422641 0
0.3639311594566757 -0.1120621034028609 0
0.3474432974281774 -0.1100937759266035 0
0.330676627232168 -0.1079890527245399 0
0.3136437787871948 -0.1057385959094528 0
0.2963820413937412 -0.1033329761501061 0
0.2788910634708143 -0.1007598935961163 0
0.9919506897578608 -0.145086481805513 0
0.9864684427441067 -0.1450601010213947 0
0.9806170311482486 -0.1450266975615458 0
0.9744344336805436 -0.1449832312150901 0
0.9679431355698986 -0.1449317039203513 0
0.9611947584998185 -0.1448716473942148 0
0.9541680699995647 -0.1448008739505295 0
0.9468959695225265 -0.1447188914288946 0
0.9393993979597657 -0.1446255951721532 0
0.9316916559706442 -0.1445194191210124 0
0.9237756035093362 -0.1444014808435048 0
0.9156773414697416 -0.1442720443068659 0
0.9073931434608965 -0.1441308843127376 0
0.8989424140154676 -0.1439738716810585 0
0.8903536125265904 -0.1438030128694217 0
0.8815985984285643 -0.1436208928823748 0
0.8727102099149413 -0.1434223616003044 0
0.8636629649266037 -0.1432101497397554 0
0.8544671393918323 -0.1429836431230292 0
0.8451782328630757 -0.1427396811980977 0
0.8357470251211729 -0.1424860552504393 0
0.8261711540953849 -0.1422094690428937 0
0.8164749372179051 -0.1419236788560966 0
0.8066526066484856 -0.1416145069253449 0
0.7966755406816506 -0.1412903901954268 0
0.7865593225434349 -0.1409503884120138 0
0.7763252533069754 -0.1405875726470382 0
0.7659280881878254 -0.1402098137047615 0
0.7553675446603832 -0.1398082282136293 0
0.7446792050086873 -0.1393871513145989 0
0.7338419842212948 -0.1389490442627813 0
0.7228315518756728 -0.1384828247152498 0
0.7116635512785832 -0.1379932637692506 0
0.7003569016066563 -0.1374836576512211 0
0.6888747399797007 -0.1369473198748878 0
0.6772073371339188 -0.1363805993440154 0
0.6653828062113774 -0.1357893429442483 0
0.6534071785463758 -0.1351722880384063 0
0.6412365213883343 -0.1345213993534831 0
0.6288648078069989 -0.1338334707820429 0
0.6163317699122374 -0.1331148077141636 0
0.6036318621882065 -0.1323636034261947 0
0.5907228223820148 -0.1315748508745699 0
0.5776020983678468 -0.1307430659752629 0
0.5643052169936642 -0.1298665608446072 0
0.550829112042635 -0.1289477543455176 0
0.5371325108124672 -0.1279794835399455 0
0.5232076701095182 -0.1269591828581036 0
0.5090882122001226 -0.1258858859857598 0
0.4947762449895576 -0.1247555902977633 0
0.4802417160806315 -0.1235624339081357 0
0.4654632302325409 -0.1222997193514143 0
0.4504638319481702 -0.120964567692626 0
0.4352572744316265 -0.1195537489309313 0
0.4198343124399542 -0.1180589567248026 0
0.4041533318384333 -0.1164710892929678 0
0.388218190896723 -0.1147831852232441 0
0.3720631540336062 -0.1129907222822623 0
0.3556862864598368 -0.1110857352299818 0
0.3390580701330908 -0.1090546606514653 0
0.3221574691820671 -0.1068850073303342 0
0.3050093485307983 -0.1045613372452878 0
0.2876338211460497 -0.102065174507029 0
0.270029582945744 -0.0993920336389042 0
0.2496384003212165 -0.09610205825104498 0
0.2381168181595193 -0.09413187960438094 0
0.2266079359738334 -0.09208902818812527 0
0.2156447183631379 -0.09007285013554414 0
0.2047142587001015 -0.08796266812234795 0
0.1938008486182287 -0.08576661996997464 0
0.1833889267207848 -0.08359578392045784 0
0.1730268905693599 -0.08135203936509475 0
0.1626923247544842 -0.07898524893820207 0
0.1528123779710817 -0.07664109619892397 0
0.1430059618204626 -0.07423487017640298 0
0.1332373456653991 -0.07167965291373944 0
0.1238973068543483 -0.06914726897482999 0
0.114642600386255 -0.06653491671780482 0
0.1055313049762331 -0.06381277748036909 0
0.09679606494124836 -0.06106124489870133 0
0.0881016294476544 -0.05818393394144399 0
0.07986676044035053 -0.05530830880706947 0
0.07172025833068081 -0.05229499985999118 0
0.06399030744205733 -0.04925393935200598 0
0.05649184953891564 -0.0461028374121512 0
0.04928760912623632 -0.04285496386129532 0
0.04251117603961609 -0.03956196825124236 0
0.03609603479363313 -0.03617075590706867 0
0.03010831653649049 -0.03266328467760867 0
0.02456631792204937 -0.02908220101178515 0
0.01958153918200001 -0.0253826139048887 0
0.01519330641438504 -0.02161481607427322 0
0.01147838933365168 -0.01776806737722712 0
0.00854486708463076 -0.01388785949683365 0
0.006478586897086262 -0.01006730591178342 0
0.005296691235335715 -0.006482166865973184 0
0.004929426419573568 -0.003316589872103134 0
0.2554050352181618 -0.09705259831248121 0
0.2438755776521807 -0.09513080858798527 0
0.2323582570039103 -0.09313298502482319 0
0.2211251917213496 -0.09108613579753892 0
0.2101794885316172 -0.08901775912894558 0
0.19925463553878 -0.08687962370421209 0
0.1885905960045502 -0.08470331648932486 0
0.1782079086450731 -0.08247391164277647 0
0.1678587569096344 -0.08017348905790486 0
0.1577441664760834 -0.07784721015080127 0
0.1479091698957725 -0.07543798318766357 0
0.1381185664915157 -0.07295890509247621 0
0.1285586423537595 -0.07045276128374947 0
0.1192601278176294 -0.06784854212534998 0
0.1100869526812435 -0.0651738470990868 0
0.1011641357633004 -0.0624521398660714 0
0.09243838953957716 -0.05965520786514657 0
0.08396647784116164 -0.05678105700100158 0
0.07578524392071818 -0.05383409438512495 0
0.06785350514805825 -0.05080805927363722 0
0.06022411389064501 -0.04771088607379516 0
0.05286843071071325 -0.04452038488783375 0
0.04587439016081061 -0.0412360622062732 0
0.03929280793264192 -0.03788778924522281 0
0.03308019817365648 -0.03444621306768207 0
0.02730801079979394 -0.03090338908244834 0
0.02205248201803781 -0.02727519689398305 0
0.01734795289110468 -0.02354219857796822 0
0.01328645580634868 -0.01974368495119715 0
0.00994193557616809 -0.01587355513310249 0
0.007433186499390758 -0.01202390898359925 0
0.005805055917456093 -0.008302075366617994 0
0.005037931700267285 -0.004908518497135513 0
0.004954212166943234 -0.002022950503023666 0
0.005672041214711662 0.001771076280368678 0
0.006928455132304841 0.004699734482201215 0
0.009084748090292222 0.007798049728596211 0
0.01215676851691234 0.01086872299758705 0
0.01607657891265013 0.01374911832418719 0
0.02073554527595289 0.01637431956437364 0
0.02601694502993482 0.01873222252908698 0
0.03185117903991367 0.02085275180759134 0
0.03818526674348708 0.02270138470719809 0
0.04492562232233502 0.02435137250862704 0
0.05204208291205689 0.02576928925771558 0
0.05947682694575441 0.02698929896905535 0
0.06730866533017414 0.02804361264069758 0
0.07539488330461037 0.02892052341627056 0
0.08367147735195747 0.02962630639838994 0
0.0923392886784437 0.03018729896142241 0
0.1010524683756378 0.03059053792391348 0
0.1102065680560853 0.03086347746568313 0
0.1193638232313496 0.03100467052331298 0
0.1288730684014758 0.03101095222656944 0
0.1384883696082832 0.03087028883878033 0
0.1481626195759479 0.03062858523973842 0
0.1582540890480135 0.03028641128601923 0
0.1683392179661147 0.02979069140811363 0
0.1784771104677264 0.02921478282789678 0
0.1890571434008675 0.02853092482655298 0
0.1996283028195866 0.02772061791307848 0
0.210226468636606 0.02682611372698884 0
0.221312395492649 0.02581260285787475 0
0.2323901661965735 0.02471232067677156 0
0.2434725304898008 0.02351295985238274 0
0.2550853549445811 0.02218267943162604 0
0.2666895352884868 0.02077866695669484 0
0.005325743459899523 0.0005243512351650282 0
0.006230670261221287 0.00326573762165822 0
0.007934845672815554 0.006298959472872089 0
0.01055869858477462 0.009400227234939128 0
[...]
    <PointData>
      <DataArray type="Float64" NumberOfComponents="3" Name="Position" format="ascii">
0.9946055399383394 -0.1450971183832148 0
0.2611716701151059 -0.09800313837391721 0
0.005079604011758591 -0.0007404528058188249 0
0.2782851820621579 0.01930517380317497 0
0.9893044505909919 -0.1450741750380556 0
0.9836306292452844 -0.1450447607456705 0
0.977605314845626 -0.145006049585922 0
0.9712673478959684 -0.1449595238444396 0
0.9646337165163864 -0.1449030937226605 0
0.9577344914643774 -0.1448376405866849 0
0.950586642187111 -0.144761087744741 0
0.9431915348380366 -0.1446734387806227 0
0.935594403277645 -0.1445744393841506 0
0.927780666006336 -0.1444630115025917 0
0.9197705410123317 -0.1443399501844178 0
0.911581772283595 -0.1442027879289084 0
0.9032188373377262 -0.1440533266540686 0
0.8946930215154825 -0.143892289034478 0
0.8860142035376981 -0.1437137367043653 0
0.8771924951075031 -0.1435224780414929 0
0.8682279247223771 -0.143322245159116 0
0.8590966916114575 -0.1430976757573217 0
0.8498525328545781 -0.1428653834196399 0
0.8405039328715719 -0.1426139789765553 0
0.8309919653747607 -0.1423495914910896 0
0.8213503428160046 -0.1420693465946977 0
0.8116001956604912 -0.1417702393797352 0
0.8017050176364806 -0.1414587744709547 0
0.7916469433435875 -0.1411213811804325 0
0.781472114169204 -0.1407720273409463 0
0.771178392444748 -0.1404031179531302 0
0.7606797034608076 -0.1400102335266416 0
0.7500552580384808 -0.1396025165070106 0
0.7393031519788925 -0.1391717861221873 0
0.728382101232612 -0.1387178540518383 0
0.717282006987954 -0.1382433233183772 0
0.7060450955692174 -0.1377432042201241 0
0.6946686759916536 -0.1372179576570257 0
0.6830822179997335 -0.1366677640267943 0
0.6713324562681093 -0.1360934346612369 0
0.6594334411553791 -0.1354851456068875 0
0.6473818853970108 -0.1348500544002929 0
0.6350905526079722 -0.13418161863682 0
0.6226389848407772 -0.1334822967138868 0
0.6100245549836762 -0.1327473187144391 0
0.5972410122797405 -0.131975799522 0
0.5842066046409445 -0.1311617569392226 0
0.5709980866453466 -0.1303082426926947 0
0.5576124047001494 -0.1294136733673107 0
0.5440462105006296 -0.1284748855209401 0
0.5302193379318862 -0.1274816991458721 0
0.5161960022871613 -0.1264366665703359 0
0.501981109713442 -0.1253338748890497 0
0.4875713956517897 -0.1241727554924 0
0.4729117571452904 -0.1229447086981405 0
0.4580156424108091 -0.1216451684069469 0
0.4429133711391728 -0.1202737442015119 0
0.4276024414292546 -0.1188224616540209 0
0.4120669133431481 -0.1172851047400429 0
0.3962410790620965 -0.1156484923022487 0
0.3801962771363262 -0.1139127271422641 0
0.3639311594566757 -0.1120621034028609 0
0.3474432974281774 -0.1100937759266035 0
0.330676627232168 -0.1079890527245399 0
0.3136437787871948 -0.1057385959094528 0
0.2963820413937412 -0.1033329761501061 0
0.2788910634708143 -0.1007598935961163 0
0.9919506897578608 -0.145086481805513 0
0.9864684427441067 -0.1450601010213947 0
0.9806170311482486 -0.1450266975615458 0
0.9744344336805436 -0.1449832312150901 0
0.9679431355698986 -0.1449317039203513 0
0.9611947584998185 -0.1448716473942148 0
0.9541680699995647 -0.1448008739505295 0
0.9468959695225265 -0.1447188914288946 0
0.9393993979597657 -0.1446255951721532 0
0.9316916559706442 -0.1445194191210124 0
0.9237756035093362 -0.1444014808435048 0
0.9156773414697416 -0.1442720443068659 0
0.9073931434608965 -0.1441308843127376 0
0.8989424140154676 -0.1439738716810585 0
0.8903536125265904 -0.1438030128694217 0
0.8815985984285643 -0.1436208928823748 0
0.8727102099149413 -0.1434223616003044 0
0.8636629649266037 -0.1432101497397554 0
0.8544671393918323 -0.1429836431230292 0
0.8451782328630757 -0.1427396811980977 0
0.8357470251211729 -0.1424860552504393 0
0.8261711540953849 -0.1422094690428937 0
0.8164749372179051 -0.1419236788560966 0
0.8066526066484856 -0.1416145069253449 0
0.7966755406816506 -0.1412903901954268 0
0.7865593225434349 -0.1409503884120138 0
0.7763252533069754 -0.1405875726470382 0
0.7659280881878254 -0.1402098137047615 0
0.7553675446603832 -0.1398082282136293 0
0.7446792050086873 -0.1393871513145989 0
0.7338419842212948 -0.1389490442627813 0
0.7228315518756728 -0.1384828247152498 0
0.7116635512785832 -0.1379932637692506 0
0.7003569016066563 -0.1374836576512211 0
0.6888747399797007 -0.1369473198748878 0
0.6772073371339188 -0.1363805993440154 0
0.6653828062113774 -0.1357893429442483 0
0.6534071785463758 -0.1351722880384063 0
0.6412365213883343 -0.1345213993534831 0
0.6288648078069989 -0.1338334707820429 0
0.6163317699122374 -0.1331148077141636 0
0.6036318621882065 -0.1323636034261947 0
0.5907228223820148 -0.1315748508745699 0
0.5776020983678468 -0.1307430659752629 0
0.5643052169936642 -0.1298665608446072 0
0.550829112042635 -0.1289477543455176 0
0.5371325108124672 -0.1279794835399455 0
0.5232076701095182 -0.1269591828581036 0
0.5090882122001226 -0.1258858859857598 0
0.4947762449895576 -0.1247555902977633 0
0.4802417160806315 -0.1235624339081357 0
0.4654632302325409 -0.1222997193514143 0
0.4504638319481702 -0.120964567692626 0
0.4352572744316265 -0.1195537489309313 0
0.4198343124399542 -0.1180589567248026 0
0.4041533318384333 -0.1164710892929678 0
0.388218190896723 -0.1147831852232441 0
0.3720631540336062 -0.1129907222822623 0
0.3556862864598368 -0.1110857352299818 0
0.3390580701330908 -0.1090546606514653 0
0.3221574691820671 -0.1068850073303342 0
0.3050093485307983 -0.1045613372452878 0
0.2876338211460497 -0.102065174507029 0
0.270029582945744 -0.0993920336389042 0
0.2496384003212165 -0.09610205825104498 0
0.2381168181595193 -0.09413187960438094 0
0.2266079359738334 -0.09208902818812527 0
0.2156447183631379 -0.09007285013554414 0
0.2047142587001015 -0.08796266812234795 0
0.1938008486182287 -0.08576661996997464 0
0.1833889267207848 -0.08359578392045784 0
0.1730268905693599 -0.08135203936509475 0
0.1626923247544842 -0.07898524893820207 0
0.1528123779710817 -0.07664109619892397 0
0.1430059618204626 -0.07423487017640298 0
0.1332373456653991 -0.07167965291373944 0
0.1238973068543483 -0.06914726897482999 0
0.114642600386255 -0.06653491671780482 0
0.1055313049762331 -0.06381277748036909 0
0.09679606494124836 -0.06106124489870133 0
0.0881016294476544 -0.05818393394144399 0
0.07986676044035053 -0.05530830880706947 0
0.07172025833068081 -0.05229499985999118 0
0.06399030744205733 -0.04925393935200598 0
0.05649184953891564 -0.0461028374121512 0
0.04928760912623632 -0.04285496386129532 0
0.04251117603961609 -0.03956196825124236 0
0.03609603479363313 -0.03617075590706867 0
0.03010831653649049 -0.03266328467760867 0
0.02456631792204937 -0.02908220101178515 0
0.01958153918200001 -0.0253826139048887 0
0.01519330641438504 -0.02161481607427322 0
0.01147838933365168 -0.01776806737722712 0
0.00854486708463076 -0.01388785949683365 0
0.006478586897086262 -0.01006730591178342 0
0.005296691235335715 -0.006482166865973184 0
0.004929426419573568 -0.003316589872103134 0
0.2554050352181618 -0.09705259831248121 0
0.2438755776521807 -0.09513080858798527 0
0.2323582570039103 -0.09313298502482319 0
0.2211251917213496 -0.09108613579753892 0
0.2101794885316172 -0.08901775912894558 0
0.19925463553878 -0.08687962370421209 0
0.1885905960045502 -0.08470331648932486 0
0.1782079086450731 -0.08247391164277647 0
0.1678587569096344 -0.08017348905790486 0
0.1577441664760834 -0.07784721015080127 0
0.1479091698957725 -0.07543798318766357 0
0.1381185664915157 -0.07295890509247621 0
0.1285586423537595 -0.07045276128374947 0
0.1192601278176294 -0.06784854212534998 0
0.1100869526812435 -0.0651738470990868 0
0.1011641357633004 -0.0624521398660714 0
0.09243838953957716 -0.05965520786514657 0
0.08396647784116164 -0.05678105700100158 0
0.07578524392071818 -0.05383409438512495 0
0.06785350514805825 -0.05080805927363722 0
0.06022411389064501 -0.04771088607379516 0
0.05286843071071325 -0.04452038488783375 0
0.04587439016081061 -0.0412360622062732 0
0.03929280793264192 -0.03788778924522281 0
0.03308019817365648 -0.03444621306768207 0
0.02730801079979394 -0.03090338908244834 0
0.02205248201803781 -0.02727519689398305 0
0.01734795289110468 -0.02354219857796822 0
0.01328645580634868 -0.01974368495119715 0
0.00994193557616809 -0.01587355513310249 0
0.007433186499390758 -0.01202390898359925 0
0.005805055917456093 -0.008302075366617994 0
0.005037931700267285 -0.004908518497135513 0
0.004954212166943234 -0.002022950503023666 0
0.005672041214711662 0.001771076280368678 0
0.006928455132304841 0.004699734482201215 0
0.009084748090292222 0.007798049728596211 0
0.01215676851691234 0.01086872299758705 0
0.01607657891265013 0.01374911832418719 0
0.02073554527595289 0.01637431956437364 0
0.02601694502993482 0.01873222252908698 0
0.03185117903991367 0.02085275180759134 0
0.03818526674348708 0.02270138470719809 0
0.04492562232233502 0.02435137250862704 0
0.05204208291205689 0.02576928925771558 0
0.05947682694575441 0.02698929896905535 0
0.06730866533017414 0.02804361264069758 0
0.07539488330461037 0.02892052341627056 0
0.08367147735195747 0.02962630639838994 0
0.0923392886784437 0.03018729896142241 0
0.1010524683756378 0.03059053792391348 0
0.1102065680560853 0.03086347746568313 0
0.1193638232313496 0.03100467052331298 0
0.1288730684014758 0.03101095222656944 0
0.1384883696082832 0.03087028883878033 0
0.1481626195759479 0.03062858523973842 0
0.1582540890480135 0.03028641128601923 0
0.1683392179661147 0.02979069140811363 0
0.1784771104677264 0.02921478282789678 0
0.1890571434008675 0.02853092482655298 0
0.1996283028195866 0.02772061791307848 0
0.210226468636606 0.02682611372698884 0
0.221312395492649 0.02581260285787475 0
0.2323901661965735 0.02471232067677156 0
0.2434725304898008 0.02351295985238274 0
0.2550853549445811 0.02218267943162604 0
0.2666895352884868 0.02077866695669484 0
0.005325743459899523 0.0005243512351650282 0
0.006230670261221287 0.00326573762165822 0
0.007934845672815554 0.006298959472872089 0
0.01055869858477462 0.009400227234939128 0
0.01406297183629015 0.01237246390687044 0
0.0183736169329385 0.01512595503347436 0
0.02335077757408953 0.01760622378542826 0
0.02892574996491267 0.01983974856865324 0
0.03499890630480768 0.02181467296250163 0
0.04154265206781742 0.02356093972666157 0
0.04847961412753697 0.02508399137319788 0
0.05574340790348077 0.02641275335718594 0
0.06338411813308102 0.02756264449964932 0
0.07134479511438779 0.02851802872886527 0
0.07954113018539793 0.02930599173455701 0
0.08800674092791416 0.02994008573793982 0
0.09668885479176395 0.03042784402683001 0
0.1056287933321264 0.03076116259706118 0
0.1147899375997469 0.03094837410688504 0
0.1241184458164128 0.03100781137494123 0
0.1336734448173965 0.03095061525387928 0
0.1433283790327776 0.0307895439418194 0
0.1532058658118875 0.03045995527791552 0
0.1632966535070638 0.03003855134706646 0
0.1734100337669825 0.02953755623947654 0
0.1837676967037592 0.02887777183131748 0
0.1943427231102286 0.02812577136981561 0
0.2049295772186777 0.02729579549627655 0
0.2157709131014422 0.02633448112958511 0
0.2268512808446125 0.02526246176732304 0
0.2379317445492579 0.02411792172782777 0
0.2492814611501993 0.0228708364517472 0
0.2608894647852015 0.02149449679529946 0
0.272487358675321 0.02004192037993508 0
0.2960538162162021 0.01688606299491684 0
0.3135507910814435 0.01435409126771209 0
0.3307803463048185 0.01172789010265034 0
0.3477462863979364 0.009018747448083926 0
0.3644155124323555 0.006246028948006513 0
0.3807784552384489 0.003421429718812482 0
0.3968943561094053 0.0005480480579683971 0
0.4127664180313925 -0.002371900639352868 0
0.4284002751010027 -0.005324562934703355 0
0.443727388482123 -0.008290313766618665 0
0.4588148318818177 -0.01127352360205573 0
0.4736794992908487 -0.01427366906085609 0
0.488326004673905 -0.01728419193116982 0
0.5027255766679927 -0.02029507083502322 0
0.5168664434357825 -0.02329906662470396 0
0.5308038153309228 -0.02630390457844883 0
0.544541340337004 -0.02930828315568005 0
0.5580755455525678 -0.03230729656007524 0
0.5713446629616438 -0.03528276489570916 0
0.5844280579995067 -0.03824955167089169 0
0.5973297919291392 -0.04120566634601295 0
0.6100534757510381 -0.04414955574533375 0
0.6225248092499098 -0.04706160324840764 0
0.6348235573338522 -0.04996073670610584 0
0.6469558445619799 -0.05284839772543234 0
0.6589258555874637 -0.05571937255443091 0
0.670656597019295 -0.05855365583482207 0
0.6822333905866579 -0.06137042965125171 0
0.6936576135615848 -0.06417643487333974 0
0.7049184526379887 -0.06695891696140781 0
0.7159708130151607 -0.06970556014639566 0
0.7268821049079875 -0.07243721014740001 0
0.7376551316637034 -0.07515363529681031 0
0.7482507445884458 -0.07783847696798019 0
0.7586778319802111 -0.08049723559357187 0
0.7689759446032004 -0.08314184217661827 0
0.7791492733612555 -0.08576485436468198 0
0.7891192866492291 -0.08835245186574682 0
0.7989698901984572 -0.09092441136693966 0
0.808705233496441 -0.09347429477718022 0
0.8182769562353137 -0.09600286526601605 0
0.8277061704655533 -0.09850180233499989 0
0.8370260189886698 -0.1009877295070009 0
0.8462170861238106 -0.1034518112340541 0
0.8552478877248775 -0.1058816634449336 0
0.8641730684873052 -0.1083002485271828 0
0.8729878078094953 -0.1106940244747324 0
0.8816361462128138 -0.1130625360525389 0
0.8901448992310055 -0.1153992350504832 0
0.8985129171172646 -0.1177079450678354 0
0.9067292511586512 -0.1199899514423146 0
0.9147863159018439 -0.1222360121914649 0
0.9226731545654216 -0.124443414540193 0
0.930384699748811 -0.1266135213508931 0
0.9379044194320874 -0.1287396625060087 0
0.9452131958806479 -0.1308152147743011 0
0.9523252555080618 -0.1328435056094421 0
0.9591970306661816 -0.1348123468841833 0
0.9658274727050766 -0.1367203892409911 0
0.9722008110615593 -0.1385613142521772 0
0.9782877202711826 -0.1403281063771316 0
0.9840727841632423 -0.1420129029841141 0
0.9895186507879108 -0.1436052709611582 0
0.2871708201088786 0.01810641801927955 0
0.3048050373623681 0.01563878442155643 0
0.322169405954545 0.01306618844593211 0
0.3392667674937775 0.01039451933920054 0
0.356082859604513 0.007645569482979429 0
0.3725983238364748 0.00484156873249538 0
0.3888367812058898 0.001988046729059578 0
0.404830649007014 -0.00090931380993987 0
0.4205839694820155 -0.003843855898024977 0
0.436064959693805 -0.006802458844188759 0
0.4512721216677307 -0.009776342186161616 0
0.4662479812727072 -0.01276843951851691 0
0.4810036552018076 -0.01577428821582229 0
0.4955269947568251 -0.01878609844593163 0
0.5097966596161859 -0.02179485144279967 0
0.5238349747823535 -0.02480081460772032 0
0.5376725778339696 -0.0278060938670658 0
0.5513085363071513 -0.03080653836731857 0
0.5647108806032252 -0.03379177682957026 0
0.5778879629578764 -0.03676060516492818 0
0.5908810271113923 -0.03971969593112011 0
0.6036923729928431 -0.04267177768519575 0
0.6162888359686317 -0.04560332429904193 0
0.6286741832918809 -0.04851116997725669 0
0.6408901793464917 -0.05140307551991361 0
0.6529426797407204 -0.05427881314148619 0
0.6647921233554662 -0.05713178420144111 0
0.6764448690365161 -0.05996195151129456 0
0.6879455020741213 -0.0627734322622957 0
0.6992886042841031 -0.06556319679171037 0
0.7104455579756942 -0.06832916566349828 0
0.7214264589615768 -0.07107138514689849 0
0.7322687575346809 -0.07379321226865865 0
0.7429535201238696 -0.07649183600486453 0
0.7534642882843308 -0.07916785628077665 0
0.7638274851530764 -0.08181775402468237 0
0.7740625910159393 -0.08445003316334787 0
0.7841342800052424 -0.08705865311521438 0
0.7940454168342471 -0.08963494016201574 0
0.8038372341225051 -0.0921989232528472 0
0.8134910948658756 -0.09473858002159763 0
0.8229923471516413 -0.09724853426830828 0
0.8323660947271134 -0.09974476592100083 0
0.8416218912086905 -0.1022154155056164 0
0.850732486924342 -0.1046667373394934 0
0.8597039311022378 -0.1070867595541754 0
0.8685811258763578 -0.1094971526661944 0
0.8773119770111574 -0.1118782802636363 0
0.8858868290247252 -0.1142266661991729 0
0.8943289081741398 -0.1165535900591607 0
0.9026084587057596 -0.1188440492731267 0
0.9107516511162248 -0.121108492812553 0
0.9187310494628788 -0.123339387408654 0
0.9265289271571189 -0.1255284679455437 0
0.9341487100809251 -0.1276770274456452 0
0.941565381597935 -0.1297778274792393 0
0.9487762756608441 -0.131829804894118 0
0.955768835843599 -0.1338284582092216 0
0.9625227330791998 -0.1357683218134391 0
0.9690071582836605 -0.1376383120583775 0
0.97524260940565 -0.1394436497854198 0
0.981179587081749 -0.1411693415679937 0
0.9867967552169845 -0.1428087506979953 0
0.9920581729089277 -0.1443492949376438 0
      </DataArray> 
    </PointData>
    <CellData>
    </CellData>
  </Piece>
  </UnstructuredGrid>
</VTKFile>
